                         Program Version 4.2.1 -  RELEASE  -
|  1> ! BP86 def2-SVP Grid5 Finalgrid6 tightscf
|  2> ! CHELPG
|  3> %scf maxiter 200 end
|  4>
|  5> *xyz -2 1
|  6> Fe 3.88495261 -2.626815290926829 -9.289427641451223
|  7> O 2.343749408 -4.312371143926829 -7.486582851951224
|  8> N 1.9007149700000001 -0.30572667292683064 -9.814726816951223
|  9> C 2.6355067199999995 -1.1747408789268299 -9.624726146951224
| 10> C 2.93782104 -3.617359946926829 -8.216250816951224
| 11> C 3.5292534200000008 -3.682986389926829 -10.645207756951223
| 12> H 4.744029135999999 0.48593697607316955 -7.804461601951223
| 13> O 3.316073837999997 -4.41931793992683 -11.515468951951226
| 14> Fe 6.251161994 -3.2278905989268303 -8.710288887951224
| 15> S 5.69523955 -1.853452697926829 -10.455025441951225
| 16> S 4.964166746 -1.8408707219268292 -7.443714631951224
| 17> O 5.868590419999999 -5.28475772092683 -6.708778961951225
| 18> N 6.39164218 0.22042868707316998 -8.734120711951224
| 19> H 6.8919004 -0.12414588292682893 -8.563011121951224
| 20> N 9.079360443999999 -2.2447807469268293 -7.944146606951223
| 21> C 5.98855642 -0.06681210592683051 -10.037423586951224
| 22> C 5.5110917399999995 -0.06981462292683105 -7.648246901951223
| 23> C 8.0255791 -2.60794232692683 -8.234778606951224
| 24> C 6.030544519999999 -4.45205967292683 -7.4865828519512245
| 25> C 6.6459700999999995 -4.43461647892683 -9.904641091951225
| 26> H 5.95976458 0.22071464107316885 -6.850825351951224
| 27> H 5.213576059999999 0.44833402507316933 -10.273198796951224
| 28> H 6.748421064 0.2557440060731704 -10.527501796951224
| 29> O 6.863948321999998 -5.240863781926831 -10.698066451951226
| 30> *
| 31>
| 32>                          ****END OF INPUT****

CARTESIAN COORDINATES (ANGSTROEM)
---------------------------------
  Fe     3.884953   -2.626815   -9.289428
  O      2.343749   -4.312371   -7.486583
  N      1.900715   -0.305727   -9.814727
  C      2.635507   -1.174741   -9.624726
  C      2.937821   -3.617360   -8.216251
  C      3.529253   -3.682986  -10.645208
  H      4.744029    0.485937   -7.804462
  O      3.316074   -4.419318  -11.515469
  Fe     6.251162   -3.227891   -8.710289
  S      5.695240   -1.853453  -10.455025
  S      4.964167   -1.840871   -7.443715
  O      5.868590   -5.284758   -6.708779
  N      6.391642    0.220429   -8.734121
  H      6.891900   -0.124146   -8.563011
  N      9.079360   -2.244781   -7.944147
  C      5.988556   -0.066812  -10.037424
  C      5.511092   -0.069815   -7.648247
  C      8.025579   -2.607942   -8.234779
  C      6.030545   -4.452060   -7.486583
  C      6.645970   -4.434616   -9.904641
  H      5.959765    0.220715   -6.850825
  H      5.213576    0.448334  -10.273199
  H      6.748421    0.255744  -10.527502
  O      6.863948   -5.240864  -10.698066

 Total Charge           Charge          ....   -2
 Multiplicity           Mult            ....    1
 Number of Electrons    NEL             ....  192
 Basis Dimension        Dim             ....  333

ORBITAL ENERGIES
----------------

  NO   OCC          E(Eh)            E(eV)
   0   2.0000    -254.561292     -6926.9649
   1   2.0000    -254.560563     -6926.9451
   2   2.0000     -87.838060     -2390.1951
   3   2.0000     -87.836216     -2390.1450
   4   2.0000     -29.321976      -797.8915
   5   2.0000     -29.321218      -797.8709
   6   2.0000     -25.277119      -687.8254
   7   2.0000     -25.276749      -687.8153
   8   2.0000     -25.276353      -687.8045
   9   2.0000     -25.275814      -687.7899
  10   2.0000     -25.267862      -687.5735
  11   2.0000     -25.267317      -687.5587
  12   2.0000     -18.584681      -505.7149
  13   2.0000     -18.584176      -505.7011
  14   2.0000     -18.583436      -505.6810
  15   2.0000     -18.579776      -505.5814
  16   2.0000     -13.751822      -374.2061
  17   2.0000     -13.696276      -372.6946
  18   2.0000     -13.694928      -372.6579
  19   2.0000      -9.747882      -265.2534
  20   2.0000      -9.747522      -265.2436
  21   2.0000      -9.747272      -265.2368
  22   2.0000      -9.745801      -265.1967
  23   2.0000      -9.702255      -264.0118
  24   2.0000      -9.701645      -263.9952
  25   2.0000      -9.633199      -262.1327
  26   2.0000      -9.631838      -262.0956
  27   2.0000      -7.431145      -202.2117
  28   2.0000      -7.429544      -202.1682
  29   2.0000      -5.458691      -148.5385
  30   2.0000      -5.457007      -148.4927
  31   2.0000      -5.453181      -148.3886
  32   2.0000      -5.451534      -148.3438
  33   2.0000      -5.451387      -148.3398
  34   2.0000      -5.449858      -148.2982
  35   2.0000      -3.005499       -81.7838
  36   2.0000      -3.004213       -81.7488
  37   2.0000      -1.829803       -49.7915
  38   2.0000      -1.829272       -49.7770
  39   2.0000      -1.828090       -49.7449
  40   2.0000      -1.827462       -49.7278
  41   2.0000      -1.808706       -49.2174
  42   2.0000      -1.804937       -49.1148
  43   2.0000      -0.765698       -20.8357
  44   2.0000      -0.764386       -20.8000
  45   2.0000      -0.759263       -20.6606
  46   2.0000      -0.750587       -20.4245
  47   2.0000      -0.684625       -18.6296
  48   2.0000      -0.509577       -13.8663
  49   2.0000      -0.506750       -13.7894
  50   2.0000      -0.478357       -13.0168
  51   2.0000      -0.446368       -12.1463
  52   2.0000      -0.368551       -10.0288
  53   2.0000      -0.352741        -9.5986
  54   2.0000      -0.263918        -7.1816
  55   2.0000      -0.250063        -6.8046
  56   2.0000      -0.247375        -6.7314
  57   2.0000      -0.233584        -6.3561
  58   2.0000      -0.229357        -6.2411
  59   2.0000      -0.209063        -5.6889
  60   2.0000      -0.176745        -4.8095
  61   2.0000      -0.166261        -4.5242
  62   2.0000      -0.161646        -4.3986
  63   2.0000      -0.157116        -4.2753
  64   2.0000      -0.155038        -4.2188
  65   2.0000      -0.152051        -4.1375
  66   2.0000      -0.149203        -4.0600
  67   2.0000      -0.143828        -3.9138
  68   2.0000      -0.138919        -3.7802
  69   2.0000      -0.137668        -3.7461
  70   2.0000      -0.136032        -3.7016
  71   2.0000      -0.132773        -3.6129
  72   2.0000      -0.121783        -3.3139
  73   2.0000      -0.120094        -3.2679
  74   2.0000      -0.115793        -3.1509
  75   2.0000      -0.100965        -2.7474
  76   2.0000      -0.095629        -2.6022
  77   2.0000      -0.092947        -2.5292
  78   2.0000      -0.053365        -1.4521
  79   2.0000      -0.026143        -0.7114
  80   2.0000      -0.023978        -0.6525
  81   2.0000      -0.017547        -0.4775
  82   2.0000      -0.016826        -0.4579
  83   2.0000      -0.011203        -0.3048
  84   2.0000      -0.008147        -0.2217
  85   2.0000       0.001744         0.0475
  86   2.0000       0.005281         0.1437
  87   2.0000       0.009650         0.2626
  88   2.0000       0.017406         0.4736
  89   2.0000       0.049152         1.3375
  90   2.0000       0.055946         1.5224
  91   2.0000       0.061228         1.6661
  92   2.0000       0.072756         1.9798
  93   2.0000       0.074433         2.0254
  94   2.0000       0.075608         2.0574
  95   2.0000       0.078681         2.1410
  96   0.0000       0.172194         4.6856
  97   0.0000       0.182189         4.9576
  98   0.0000       0.185544         5.0489
  99   0.0000       0.209006         5.6874
 100   0.0000       0.219166         5.9638

MULLIKEN ATOMIC CHARGES
-----------------------
   0 Fe:   -0.565034
   1 O :   -0.132097
   2 N :   -0.198871
   3 C :   -0.130399
   4 C :    0.098784
   5 C :    0.103304
   6 H :   -0.036201
   7 O :   -0.116731
   8 Fe:   -0.572148
   9 S :   -0.119966
  10 S :   -0.108214
  11 O :   -0.105750
  12 N :    0.082561
  13 H :   -0.229467
  14 N :   -0.200593
  15 C :    0.206942
  16 C :    0.193466
  17 C :   -0.133412
  18 C :    0.105265
  19 C :    0.095132
  20 H :   -0.046350
  21 H :   -0.030619
  22 H :   -0.051388
  23 O :   -0.108213
Sum of atomic charges:   -2.0000000

LOEWDIN ATOMIC CHARGES
----------------------
   0 Fe:   -0.648603
   1 O :   -0.088914
   2 N :   -0.275569
   3 C :   -0.179862
   4 C :    0.043865
   5 C :    0.044656
   6 H :   -0.010555
   7 O :   -0.075794
   8 Fe:   -0.651581
   9 S :    0.287191
  10 S :    0.299834
  11 O :   -0.065946
  12 N :    0.119867
  13 H :   -0.219260
  14 N :   -0.275450
  15 C :   -0.053666
  16 C :   -0.043591
  17 C :   -0.184749
  18 C :    0.044183
  19 C :    0.040772
  20 H :   -0.015853
  21 H :   -0.009872
  22 H :   -0.013250
  23 O :   -0.067855

  Mayer bond orders larger than 0.100000
B(  0-Fe,  1-O ) :   0.2178 B(  0-Fe,  2-N ) :   0.1055 B(  0-Fe,  3-C ) :   1.0708
B(  0-Fe,  4-C ) :   1.4795 B(  0-Fe,  5-C ) :   1.4611 B(  0-Fe,  7-O ) :   0.2082
B(  0-Fe,  8-Fe) :   0.6760 B(  0-Fe,  9-S ) :   0.7455 B(  0-Fe, 10-S ) :   0.7502
B(  1-O ,  4-C ) :   2.1948 B(  2-N ,  3-C ) :   2.7963 B(  5-C ,  7-O ) :   2.2163
B(  6-H , 16-C ) :   0.9392 B(  8-Fe,  9-S ) :   0.7363 B(  8-Fe, 10-S ) :   0.7505
B(  8-Fe, 11-O ) :   0.2090 B(  8-Fe, 14-N ) :   0.1128 B(  8-Fe, 17-C ) :   1.0745
B(  8-Fe, 18-C ) :   1.4681 B(  8-Fe, 19-C ) :   1.4685 B(  8-Fe, 23-O ) :   0.2111
B(  9-S , 15-C ) :   0.9247 B( 10-S , 16-C ) :   0.9231 B( 11-O , 18-C ) :   2.2287
B( 12-N , 13-H ) :   1.0389 B( 12-N , 15-C ) :   1.0563 B( 12-N , 16-C ) :   1.0389
B( 14-N , 17-C ) :   2.7794 B( 15-C , 21-H ) :   0.9352 B( 15-C , 22-H ) :   0.9366
B( 16-C , 20-H ) :   0.9428 B( 19-C , 23-O ) :   2.2252

FINAL SINGLE POINT ENERGY     -4096.090405753819

DIPOLE MOMENT
-------------
                                X             Y             Z
Electronic contribution:     -4.03407     -15.60022      -0.98238
Nuclear contribution   :      4.12199      15.41117       0.95984
                        -----------------------------------------
Total Dipole Moment    :      0.08792      -0.18905      -0.02254
                        -----------------------------------------
Magnitude (a.u.)       :      0.20971
Magnitude (Debye)      :      0.53303

Rotational constants in cm-1:     0.011717     0.009940     0.008266
Rotational constants in MHz :   351.256261   297.998974   247.796483

                             ****ORCA TERMINATED NORMALLY****
TOTAL RUN TIME: 0 days 0 hours 2 minutes 31 seconds 572 msec
