                         Program Version 5.0.3 -  RELEASE  -
|  1> ! BP86 def2-SVP tightscf notrah
|  2>
|  3>
|  4>
|  5>
|  6> *xyz 0 1
|  7> H 0.0 0.0 0.0
|  8> F 0.0 0.0 1.0
|  9> *
| 10>
| 11>                          ****END OF INPUT****

CARTESIAN COORDINATES (ANGSTROEM)
---------------------------------
  H      0.000000    0.000000    0.000000
  F      0.000000    0.000000    1.000000

 Total Charge           Charge          ....    0
 Multiplicity           Mult            ....    1
 Number of Electrons    NEL             ....   10
 Basis Dimension        Dim             ....   19

ORBITAL ENERGIES
----------------

  NO   OCC          E(Eh)            E(eV)
   0   2.0000     -24.250171      -659.8807
   1   2.0000      -1.028521       -27.9875
   2   2.0000      -0.446594       -12.1524
   3   2.0000      -0.308463        -8.3937
   4   2.0000      -0.308463        -8.3937
   5   0.0000       0.004168         0.1134
   6   0.0000       0.476275        12.9601
   7   0.0000       1.051950        28.6250
   8   0.0000       1.051950        28.6250
   9   0.0000       1.088595        29.6222

MULLIKEN ATOMIC CHARGES
-----------------------
   0 H :    0.265644
   1 F :   -0.265644
Sum of atomic charges:   -0.0000000

LOEWDIN ATOMIC CHARGES
----------------------
   0 H :    0.153052
   1 F :   -0.153052

  Mayer bond orders larger than 0.100000
B(  0-H ,  1-F ) :   0.9763

FINAL SINGLE POINT ENERGY      -100.350611851153

DIPOLE MOMENT
-------------
                                X             Y             Z
Electronic contribution:      0.00000       0.00000       0.18693
Nuclear contribution   :      0.00000       0.00000      -0.93759
                        -----------------------------------------
Total Dipole Moment    :      0.00000       0.00000      -0.75066
                        -----------------------------------------
Magnitude (a.u.)       :      0.75066
Magnitude (Debye)      :      1.90803

Rotational constants in cm-1:     0.000000    17.611192    17.611192
Rotational constants in MHz :     0.000000 527970.251602 527970.251602

                             ****ORCA TERMINATED NORMALLY****
TOTAL RUN TIME: 0 days 0 hours 0 minutes 0 seconds 704 msec
