                         Program Version 5.0.3 -  RELEASE  -
|  1> ! BP86 def2-SVP tightscf notrah
|  2>
|  3>
|  4>
|  5>
|  6> *xyz 1 2
|  7> H 0.0 0.0 0.0
|  8> F 0.0 0.0 1.0
|  9> *
| 10>
| 11>                          ****END OF INPUT****

CARTESIAN COORDINATES (ANGSTROEM)
---------------------------------
  H      0.000000    0.000000    0.000000
  F      0.000000    0.000000    1.000000

 Total Charge           Charge          ....    1
 Multiplicity           Mult            ....    2
 Number of Electrons    NEL             ....    9
 Basis Dimension        Dim             ....   19

ORBITAL ENERGIES
----------------
                 SPIN UP ORBITALS
  NO   OCC          E(Eh)            E(eV)
   0   1.0000     -24.940116      -678.6551
   1   1.0000      -1.662595       -45.2415
   2   1.0000      -1.020963       -27.7818
   3   1.0000      -0.999687       -27.2029
   4   1.0000      -0.904549       -24.6140
   5   0.0000      -0.386835       -10.5263
   6   0.0000       0.085682         2.3315
   7   0.0000       0.501281        13.6406
   8   0.0000       0.551411        15.0047
   9   0.0000       0.605359        16.4726

                 SPIN DOWN ORBITALS
  NO   OCC          E(Eh)            E(eV)
   0   1.0000     -24.908902      -677.8057
   1   1.0000      -1.590689       -43.2848
   2   1.0000      -0.992022       -26.9943
   3   1.0000      -0.873608       -23.7721
   4   0.0000      -0.832773       -22.6609
   5   0.0000      -0.378475       -10.2988
   6   0.0000       0.088149         2.3987
   7   0.0000       0.567528        15.4432
   8   0.0000       0.598138        16.2762

MULLIKEN ATOMIC CHARGES AND SPIN POPULATIONS
--------------------------------------------
   0 H :    0.450735   -0.021541
   1 F :    0.549265    1.021541
Sum of atomic charges         :    1.0000000

LOEWDIN ATOMIC CHARGES AND SPIN POPULATIONS
-------------------------------------------
   0 H :    0.317128   -0.004995
   1 F :    0.682872    1.004995

  Mayer bond orders larger than 0.100000
B(  0-H ,  1-F ) :   0.8148

FINAL SINGLE POINT ENERGY       -99.775622509644

DIPOLE MOMENT
-------------
                                X             Y             Z
Electronic contribution:      0.00000       0.00000      -0.07008
Nuclear contribution   :      0.00000       0.00000      -0.93759
                        -----------------------------------------
Total Dipole Moment    :      0.00000       0.00000      -1.00767
                        -----------------------------------------
Magnitude (a.u.)       :      1.00767
Magnitude (Debye)      :      2.56128

Rotational constants in cm-1:     0.000000    17.611192    17.611192
Rotational constants in MHz :     0.000000 527970.251602 527970.251602

                             ****ORCA TERMINATED NORMALLY****
TOTAL RUN TIME: 0 days 0 hours 0 minutes 1 seconds 486 msec
